  1C 123059 040915 N39:14.13 W123:09.38 Recorder: dd                                
  2C 123059 040915 N39:14.13 W123:09.38 Not recording molas                         
  3T.123059 040915 N39:14.13 W123:09.38   T1                                        
  4V.123059 040915 N39:14.13 W123:09.38    g    g    g    g    g                    
  5P.123059 040915 N39:14.13 W123:09.38   aa   bb   cc   dd                         
  6A.123059 040915 N39:14.13 W123:09.38  650  100                                   
  7W.123059 040915 N39:14.13 W123:09.38    n   10    1    0    6                    
  8*.123100 040915 N39:14.14 W123:09.45                                             
  9S.123135 040915 N39:14.02 W123:10.70    1   cc   67    6   mn                    
 10S.123147 040915 N39:14.01 W123:11.14    2   bb  -60    6   mn                    
 11S.123156 040915 N39:14.00 W123:11.50    3   cc   38    2   mn                    
 12*.123200 040915 N39:13.99 W123:11.58                                             
 13S.123220 040915 N39:13.94 W123:12.32    4   aa  -50    5   mn                    
 14S.123230 040915 N39:13.94 W123:12.65    5   cc   49    4   bm                    
 15S.123242 040915 N39:13.94 W123:13.17    6   cc   42   10   gg   er               
   1                                                          80   20               
 16*.123300 040915 N39:13.96 W123:13.75                                             
 17S.123343 040915 N39:14.00 W123:15.30    7   aa  -53    5   bm                    
 18*.123400 040915 N39:13.98 W123:15.82                                             
 19W.123452 040915 N39:13.99 W123:17.67    r   10    1    2    6                    
 20C.123456 040915 N39:13.99 W123:17.81 streaky red tide                            
 21*.123500 040915 N39:13.99 W123:17.91                                             
 22S.123513 040915 N39:13.99 W123:18.44    8   dd   24    2   bm                    
 23C.123532 040915 N39:13.99 W123:19.07 shark 11ft                                  
 24*.123600 040915 N39:14.00 W123:20.02                                             
 25S.123613 040915 N39:14.00 W123:20.51    9   aa  -57    4   mn                    
 26S.123626 040915 N39:14.01 W123:21.00   10   cc   65    5   gg                    
 27t.123626 040915 N39:14.01 W123:21.00   aa  -20   dc    5   90    n               
 28S.123643 040915 N39:14.01 W123:21.55   11   bb   87    3   pp                    
 29*.123701 040915 N39:14.03 W123:22.11                                             
 30S.123701 040915 N39:14.04 W123:22.18   12   bb   82    5   gg                    
 31S.123716 040915 N39:14.06 W123:22.74   13   bb   54    6   pp                    
 32#.123717 040915 N39:14.06 W123:22.74                                             
 33S.123737 040915 N39:14.05 W123:23.46   14   cc   62    2   gg                    
 34W.123757 040915 N39:14.04 W123:24.20    n   10    2    0    6                    
 35E 123800 040915 N39:14.04 W123:24.28                                             
 36C 123800 040915 N39:14.04 W123:24.28 off effort to circle on unidentifed object  
 37* 123900 040915 N39:14.05 W123:26.40                                             
 38R.124000 040915 N39:14.04 W123:28.45                                             
 39W.124028 040915 N39:14.00 W123:29.49    n   20    2    0    6                    
 40C.124036 040915 N39:13.99 W123:29.76 water got more blue                         
 41*.124100 040915 N39:13.99 W123:30.55                                             
 42W.124108 040915 N39:13.99 W123:30.86    n   20    1    0    6                    
 43*.124200 040915 N39:13.96 W123:32.60                                             
 44S.124213 040915 N39:13.95 W123:33.09   15   bb   50    3   mn                    
 45*.124300 040915 N39:13.94 W123:34.67                                             
 46O 124343 040915 N39:13.97 W123:36.20                                             
 47* 124400 040915 N39:13.98 W123:36.71                                             
 48* 124500 040915 N39:14.67 W123:38.49                                             
 49* 124600 040915 N39:13.30 W123:38.24                                             
 50T.124651 040915 N39:13.20 W123:36.47   T2                                        
 51V.124651 040915 N39:13.20 W123:36.47    g    g    g    g    g                    
 52P.124651 040915 N39:13.20 W123:36.47   aa   dd   cc   bb                         
 53A.124651 040915 N39:13.20 W123:36.47  650  100                                   
 54W.124651 040915 N39:13.20 W123:36.47    n   20    1    0   12                    
 55*.124700 040915 N39:13.17 W123:36.15                                             
 56*.124800 040915 N39:13.07 W123:34.09                                             
 57A.124829 040915 N39:13.06 W123:33.09  680  100                                   
 58A.124836 040915 N39:13.07 W123:32.81  650  100                                   
 59*.124900 040915 N39:13.07 W123:32.00                                             
 60*.125000 040915 N39:12.97 W123:29.92                                             
 61A.125032 040915 N39:13.01 W123:28.78  680   90                                   
 62*.125100 040915 N39:13.04 W123:27.92                                             
 63S.125140 040915 N39:13.05 W123:26.46   16   aa  -31    6   mn                    
 64S.125155 040915 N39:13.05 W123:25.90   17   bb  -59    6   bm                    
 65*.125200 040915 N39:13.04 W123:25.76                                             
 66S.125203 040915 N39:13.04 W123:25.62   18   aa  -62    2   gg                    
 67S.125204 040915 N39:13.04 W123:25.62   19   cc   42    3   bm                    
 68S.125207 040915 N39:13.04 W123:25.55   20   aa  -48    4   bm                    
 69S.125217 040915 N39:13.02 W123:25.11   21   cc   63    6   pp                    
 70C.125239 040915 N39:13.02 W123:24.43 belly has some glare                        
 71S.125254 040915 N39:13.02 W123:23.89   22   cc   43    2   pp                    
 72*.125300 040915 N39:13.03 W123:23.76                                             
 73*.125400 040915 N39:13.01 W123:21.70                                             
 74V.125401 040915 N39:13.01 W123:21.63    g    g    p    g    g                    
 75W.125404 040915 N39:13.01 W123:21.63    n   20    2    0   12                    
 76S.125434 040915 N39:13.00 W123:20.53   23   cc   56    6   mn                    
 77*.125500 040915 N39:13.00 W123:19.71                                             
 78S.125520 040915 N39:13.02 W123:19.03   24   cc   37    6   mn                    
 79*.125600 040915 N39:13.02 W123:17.76                                             
 80W.125640 040915 N39:13.04 W123:16.38    r   20    2    0   12                    
 81C.125643 040915 N39:13.03 W123:16.31 patchy red tide                             
 82S.125649 040915 N39:13.03 W123:16.11   25   bb  -76    1   pp                    
 83*.125700 040915 N39:13.02 W123:15.70                                             
 84s.125700 040915 N39:13.02 W123:15.70   25  -70                                   
 85O 125730 040915 N39:13.02 W123:14.50                                             
